# vtk DataFile Version 2.0
VTK file generated from Point objects
ASCII
DATASET UNSTRUCTURED_GRID
POINTS 616 float
0.9029062513296201 0.4224926730189561 0.0 
0.9030741775427666 0.4291926622557024 0.1 
0.8613488684080322 0.4618545296721081 0.03583402238518919 
0.8824388136582256 0.3786462289848748 0.04811567161694998 
0.5326463341039436 0.9031272383028058 0.0 
0.5176716468895408 0.8006775356216645 0.0 
0.5656856058118502 0.8413372531588784 0.05338523968201762 
0.4828404739657867 0.8868101367090993 0.0527081982109365 
0.914877850380796 0.4754897532380615 0.05076043534910366 
0.6808068994748241 0.3971138299654105 0.1 
0.7052938969144663 0.2718339168397338 0.1 
0.6498275474392924 0.3056685671490048 0.07120090864736989 
0.7062755808128353 0.3181059451379061 0.05336482924486026 
0.4008928369886396 0.5997040280063493 0.1 
0.394998008099059 0.6635016792926134 0.07268667014462657 
0.4535324043847526 0.691493215181012 0.1 
0.460585504168688 0.631658130503486 0.05404649453354121 
0.9490528655004327 0.1736386427585973 0.04978451141896974 
0.9034378175495277 0.2097900934303565 0.0 
0.9051513721466479 0.1562386304148476 0.0496203882711141 
0.911529294473106 0.251791052759846 0.05040837045588065 
0.09906623613521752 0.2113612086869144 0.0 
0.05914878734179523 0.1673175463318293 0.03359890734807849 
0.1055888044028865 0.107655855418861 0.0 
0.1255210209009154 0.1933410935053373 0.04890888739547382 
0.1060215639055646 0.4307029586590925 0.1 
0.2311759846510119 0.4400756845435814 0.1 
0.1650874868040599 0.3788477080815763 0.05248396986562951 
0.1701974171788806 0.4484330556386872 0.04988520865049641 
0.9025546437603189 0.2090404307285602 0.1 
0.8044391076311784 0.4015910198682582 0.0 
0.4064693660083087 0.7988544115553945 0.0 
0.4917889323283168 0.7947592503416505 0.1 
0.4643444060291808 0.8498524149677353 0.0394600492177348 
0.3605095044073799 0.5140733049344812 0.0 
0.3273990504664345 0.571866311972816 0.02777695168396319 
0.2916667961829477 0.5319425733743933 0.0 
0.2949031934555752 0.5667985982078461 0.05598043515606931 
0.5817713214052364 0.8474282789163683 0.03056878657754719 
0.333333333332501 0.0 0.0 
0.3333333333347207 0.0 0.1 
0.3800822147585983 0.05482638677123539 0.04399707950767839 
0.3259171239758425 0.1003311213970122 0.1 
0.09392092301992863 0.3236424182455832 0.03136409362136046 
0.09391940781946109 0.2853621178481882 0.0 
0.1785510094668993 0.3328403698773247 0.0 
0.1074447495908385 0.2716957161716426 0.04640909898213034 
0.4370996529002411 0.2296473869058021 0.0 
0.4799158385334463 0.1578012739334856 0.02605633322866237 
0.5431393452191382 0.1705860459052948 0.0 
0.4985888499078417 0.2032691988456614 0.0385519825500991 
0.06444342421626403 0.1710028233631237 0.05987553643758632 
0.3224012657853308 0.1082944761526559 0.0 
0.386469406704564 0.09873921816260582 0.05530630111777154 
0.8295928388315664 0.7454586056326764 0.1 
0.725666446594653 0.7190381626135404 0.1 
0.766414135514033 0.770537586150907 0.06246718273943853 
0.7713268291969917 0.7266072260826977 0.04953166947176973 
0.607951752393242 0.4475580167334746 0.1 
0.6199646200312857 0.4724838838340474 0.04639485437511839 
0.6534791032889649 0.4745007296816009 0.0760060684166462 
0.6120541598109118 0.3982956421263024 0.05676670309632709 
0.8143662739596037 0.4611292523957223 0.05090052739820147 
0.6831153282076479 0.8616649961722551 0.01877802046142979 
0.6520496295810839 0.8197284568762351 0.0509799296318473 
0.67878910273353 0.8518822672531956 0.06646166060169335 
0.6786927505540978 0.9193055369201448 0.04916973358440325 
0.2834246251472892 0.03591562980605506 0.05903369858487341 
0.4227376367183709 0.7615799712670587 0.06398828439905777 
0.4107677608467042 0.8421572005546323 0.05257321261808706 
0.9545543050988738 0.3958303863829875 0.0496577725610458 
0.2998024779468775 0.4769317057858137 0.02602454852900996 
0.3448613552954861 0.4765247601878255 0.04697381650733303 
0.64046113020712 0.9057790513763113 0.0 
0.6291049927138264 0.8073331574817822 0.0 
0.4303124534832513 0.1053676826167534 0.0 
0.4457034669109222 0.06276683156715385 0.04721908297612114 
0.5066736064101771 0.1003576645638391 0.0 
0.5096918874583284 0.1365551919962801 0.04841123191599862 
0.1478495969835403 0.2560355722707223 0.02753531427902232 
0.2017219529730874 0.2127265671400996 0.0 
0.189110457728145 0.2695933264946478 0.05246934386959776 
0.1518821357064956 0.1548989185380765 0.03545598633816865 
0.1620910194498839 0.8830872832456677 0.0558740263023946 
0.2457210385809177 0.8155972380946842 0.0562486891438755 
0.1973049000976337 0.8112514687308412 0.1 
0.1516464172767595 0.8043191543996361 0.05312928907236038 
1.0 0.4444444444462943 0.1 
0.5821430570571888 0.5778316292805044 0.0 
0.6754089127508962 0.4965687984287361 0.0 
0.6514719521265273 0.5815662278248678 0.04356793730183547 
0.6171989685053509 0.5754541925694875 0.04714787369725282 
0.1646238795049462 0.05914871481643241 0.07192623753050333 
0.1597189829920065 0.06097234180253973 0.04980307709650935 
0.1111111111115736 0.0 0.1 
0.1088912910948635 0.1063884709467787 0.1 
0.2176809156075922 0.1028260985687832 0.1 
0.2222222222231471 0.0 0.1 
0.1729528358847899 0.03629510858638913 0.05894711055343971 
0.05750435499081058 0.7326329217598991 0.06756979988198483 
0.1432921387594631 0.7228005754788017 0.06034191106513808 
0.0994263447880151 0.7033118785836506 0.1 
0.06227003214237233 0.6818637507033287 0.05093002476934952 
0.2222222222217143 0.0 0.0 
1.0 0.2222222222217143 0.0 
0.4964039156075001 0.06355696595608026 0.05909446226295399 
0.4895495256744177 0.051755915351922 0.03100428398687702 
0.5635329914450465 0.06929039789513587 0.04456537319437118 
0.636394189446361 0.3541598856542489 0.0 
0.6640235179665157 0.3129766063386013 0.03159008022530167 
0.646726272231467 0.3457068191333342 0.05213770180114775 
0.6125536663653157 0.2881713042720805 0.05138544770372107 
0.0588603934643643 0.1185046601863038 0.04804629812960872 
0.267988264035311 0.06255727428 0.05058168966148417 
0.2126620156461594 0.106833589133942 0.0 
0.5142772160065865 0.3257001916147514 0.0 
0.4415406110923011 0.3134405170726949 0.04435948291098962 
0.4936503401723709 0.2826262208111087 0.04256744181457133 
0.4447776311635706 0.3278528135458518 0.1 
0.4532517281250322 0.4303767014112079 0.06466809905584311 
0.5405444334799793 0.4066320588510121 0.1 
0.4695504840163784 0.375370768660905 0.05448516412530081 
0.9435207054872752 0.1537418292914446 0.02882199639220782 
0.09960399021306313 0.4620889281210062 0.0 
0.1007408858151498 0.5068444254705695 0.1 
0.1501745917295507 0.4835892523481015 0.06746849397610681 
0.1267564285777544 0.5228439101279475 0.05168990327488236 
0.2743867165213478 0.05793394429080705 0.07223814773501709 
0.2714888081460716 0.4983033187004827 0.05346555492319803 
1.0 0.2222222222231471 0.1 
0.943476775148201 0.1533908385272099 0.07099677273312145 
0.5555555555543833 0.0 0.0 
0.5548994171667437 0.1041100647226596 0.02737908423048195 
0.1563836474953798 0.8430308489249313 0.03258762305803201 
0.09648127529523878 0.3839224095863979 0.0 
0.0 0.333333333332501 0.0 
0.0891370627412918 0.3593361926203124 0.05566212720581452 
0.802042960130099 0.413954028132008 0.1 
0.4324366391526139 0.1621979690039492 0.04828256429833951 
0.846794982236714 0.3657454088201991 0.0642760282575972 
0.6345046743451229 0.8954597094413286 0.1 
0.6101819746114194 0.7722050523905257 0.1 
0.4677022892076894 0.7459783535210454 0.04219904826349319 
0.9479633556736196 0.4970073726191574 0.06719372944157562 
0.9521789102138676 0.4914862188007985 0.03824963648424105 
0.777777777777932 0.0 0.1 
0.7386437578100005 0.05113831826052094 0.07238658681235059 
0.8013474884750714 0.09657016143412087 0.1 
0.7706475332986159 0.08309258990750878 0.05062550911129125 
0.6135525269699891 0.2646816422511477 0.0 
0.5860421513877395 0.3387922848974243 0.04360470701387618 
0.5536209670696268 0.2965978885577578 0.04900639330958504 
0.1640317127701982 0.162546296202381 0.06272470901719392 
0.1751014486165057 0.1243841073853495 0.05016872212514056 
0.5240161707633425 0.8994195128005122 0.1 
0.615464709068654 0.5286652784723131 0.1 
0.7096930522191397 0.5246657935552054 0.1 
0.7063735108827496 0.5524834905962933 0.05158934103620828 
0.4549084680465029 0.8556046925345121 0.07064535747428115 
0.2620721422613922 0.1612133687767469 0.01086671727838372 
0.8359344466554421 0.8955593820839212 0.0 
0.7714408135107388 0.9141676401032374 0.02610202479632694 
0.7452904579416082 0.8256650366400717 0.0 
0.7780860006153462 0.888791364782597 0.04623297430983857 
0.3115033346409914 0.2169988426802902 0.0 
0.2156296288193859 0.2066193343371309 0.1 
0.05295182612106765 0.030804638507833 0.04835754664786222 
0.1111111111109082 0.0 0.0 
0.05913484265023579 0.06061003084251544 0.03278176711843525 
0.06524593061924616 0.06055103065849908 0.05937156841352697 
0.1460081742573763 0.8521794442480233 0.07244471908148005 
0.1968565418582637 0.5867267990559015 0.0 
0.2218153498733017 0.4707730388044022 0.0 
0.2497686052593706 0.5476748445141502 0.04029627688840155 
0.2022024065002146 0.5097857957565294 0.05186448421014128 
0.777777777777932 1.0 0.0 
0.7045569972857613 0.9497734896938012 0.02627883124258619 
0.7176047319680366 0.907882739190855 0.0 
0.7456092047638369 0.9338500550846749 0.04882489698201743 
0.1036908648704764 0.5582305435255175 0.0722745346576289 
0.0 0.5555555555572513 0.1 
0.05865590334581501 0.561855479008289 0.05459190085671023 
0.2692763444197095 0.1065361117814331 0.05413349449008628 
0.550690215937821 0.7819323702703043 0.06096141468583029 
0.3248225952348469 0.2068560822524075 0.1 
0.3774471747035247 0.153604458929885 0.06211906824304932 
0.1491129062121257 0.4124061865972828 0.03757891226873223 
0.0516906124301786 0.4843868460333019 0.0657128956184954 
0.3251429620948244 0.5250820597730267 0.1 
0.05190575241121803 0.2165404817556694 0.04648079519499251 
0.2710125659094169 0.1541581591388334 0.08396288260417092 
0.2479142840045319 0.5346147031405738 0.07099663781305175 
[...]
CELL_DATA 2483
FIELD FieldData 7 
eid 1 2483 double
0 1 2 3 4 5 6 7 8 9 10  
11 12 13 14 15 16 17 18 19 20  
21 22 23 24 25 26 27 28 29 30  
31 32 33 34 35 36 37 38 39 40  
41 42 43 44 45 46 47 48 49 50  
51 52 53 54 55 56 57 58 59 60  
61 62 63 64 65 66 67 68 69 70  
71 72 73 74 75 76 77 78 79 80  
81 82 83 84 85 86 87 88 89 90  
91 92 93 94 95 96 97 98 99 100  
101 102 103 104 105 106 107 108 109 110  
111 112 113 114 115 116 117 118 119 120  
121 122 123 124 125 126 127 128 129 130  
131 132 133 134 135 136 137 138 139 140  
141 142 143 144 145 146 147 148 149 150  
151 152 153 154 155 156 157 158 159 160  
161 162 163 164 165 166 167 168 169 170  
171 172 173 174 175 176 177 178 179 180  
181 182 183 184 185 186 187 188 189 190  
191 192 193 194 195 196 197 198 199 200  
201 202 203 204 205 206 207 208 209 210  
211 212 213 214 215 216 217 218 219 220  
221 222 223 224 225 226 227 228 229 230  
231 232 233 234 235 236 237 238 239 240  
241 242 243 244 245 246 247 248 249 250  
251 252 253 254 255 256 257 258 259 260  
261 262 263 264 265 266 267 268 269 270  
271 272 273 274 275 276 277 278 279 280  
281 282 283 284 285 286 287 288 289 290  
291 292 293 294 295 296 297 298 299 300  
301 302 303 304 305 306 307 308 309 310  
311 312 313 314 315 316 317 318 319 320  
321 322 323 324 325 326 327 328 329 330  
331 332 333 334 335 336 337 338 339 340  
341 342 343 344 345 346 347 348 349 350  
351 352 353 354 355 356 357 358 359 360  
361 362 363 364 365 366 367 368 369 370  
371 372 373 374 375 376 377 378 379 380  
381 382 383 384 385 386 387 388 389 390  
391 392 393 394 395 396 397 398 399 400  
401 402 403 404 405 406 407 408 409 410  
411 412 413 414 415 416 417 418 419 420  
421 422 423 424 425 426 427 428 429 430  
431 432 433 434 435 436 437 438 439 440  
441 442 443 444 445 446 447 448 449 450  
451 452 453 454 455 456 457 458 459 460  
461 462 463 464 465 466 467 468 469 470  
471 472 473 474 475 476 477 478 479 480  
481 482 483 484 485 486 487 488 489 490  
491 492 493 494 495 496 497 498 499 500  
501 502 503 504 505 506 507 508 509 510  
511 512 513 514 515 516 517 518 519 520  
521 522 523 524 525 526 527 528 529 530  
531 532 533 534 535 536 537 538 539 540  
541 542 543 544 545 546 547 548 549 550  
551 552 553 554 555 556 557 558 559 560  
561 562 563 564 565 566 567 568 569 570  
571 572 573 574 575 576 577 578 579 580  
581 582 583 584 585 586 587 588 589 590  
591 592 593 594 595 596 597 598 599 600  
601 602 603 604 605 606 607 608 609 610  
611 612 613 614 615 616 617 618 619 620  
621 622 623 624 625 626 627 628 629 630  
631 632 633 634 635 636 637 638 639 640  
641 642 643 644 645 646 647 648 649 650  
651 652 653 654 655 656 657 658 659 660  
661 662 663 664 665 666 667 668 669 670  
671 672 673 674 675 676 677 678 679 680  
681 682 683 684 685 686 687 688 689 690  
691 692 693 694 695 696 697 698 699 700  
701 702 703 704 705 706 707 708 709 710  
711 712 713 714 715 716 717 718 719 720  
721 722 723 724 725 726 727 728 729 730  
731 732 733 734 735 736 737 738 739 740  
741 742 743 744 745 746 747 748 749 750  
751 752 753 754 755 756 757 758 759 760  
761 762 763 764 765 766 767 768 769 770  
771 772 773 774 775 776 777 778 779 780  
781 782 783 784 785 786 787 788 789 790  
791 792 793 794 795 796 797 798 799 800  
801 802 803 804 805 806 807 808 809 810  
811 812 813 814 815 816 817 818 819 820  
821 822 823 824 825 826 827 828 829 830  
831 832 833 834 835 836 837 838 839 840  
841 842 843 844 845 846 847 848 849 850  
851 852 853 854 855 856 857 858 859 860  
861 862 863 864 865 866 867 868 869 870  
871 872 873 874 875 876 877 878 879 880  
881 882 883 884 885 886 887 888 889 890  
891 892 893 894 895 896 897 898 899 900  
901 902 903 904 905 906 907 908 909 910  
911 912 913 914 915 916 917 918 919 920  
921 922 923 924 925 926 927 928 929 930  
931 932 933 934 935 936 937 938 939 940  
941 942 943 944 945 946 947 948 949 950  
951 952 953 954 955 956 957 958 959 960  
961 962 963 964 965 966 967 968 969 970  
971 972 973 974 975 976 977 978 979 980  
981 982 983 984 985 986 987 988 989 990  
991 992 993 994 995 996 997 998 999 1000  
1001 1002 1003 1004 1005 1006 1007 1008 1009 1010  
1011 1012 1013 1014 1015 1016 1017 1018 1019 1020  
1021 1022 1023 1024 1025 1026 1027 1028 1029 1030  
1031 1032 1033 1034 1035 1036 1037 1038 1039 1040  
1041 1042 1043 1044 1045 1046 1047 1048 1049 1050  
1051 1052 1053 1054 1055 1056 1057 1058 1059 1060  
1061 1062 1063 1064 1065 1066 1067 1068 1069 1070  
1071 1072 1073 1074 1075 1076 1077 1078 1079 1080  
1081 1082 1083 1084 1085 1086 1087 1088 1089 1090  
1091 1092 1093 1094 1095 1096 1097 1098 1099 1100  
1101 1102 1103 1104 1105 1106 1107 1108 1109 1110  
1111 1112 1113 1114 1115 1116 1117 1118 1119 1120  
1121 1122 1123 1124 1125 1126 1127 1128 1129 1130  
1131 1132 1133 1134 1135 1136 1137 1138 1139 1140  
1141 1142 1143 1144 1145 1146 1147 1148 1149 1150  
1151 1152 1153 1154 1155 1156 1157 1158 1159 1160  
1161 1162 1163 1164 1165 1166 1167 1168 1169 1170  
1171 1172 1173 1174 1175 1176 1177 1178 1179 1180  
1181 1182 1183 1184 1185 1186 1187 1188 1189 1190  
1191 1192 1193 1194 1195 1196 1197 1198 1199 1200  
1201 1202 1203 1204 1205 1206 1207 1208 1209 1210  
1211 1212 1213 1214 1215 1216 1217 1218 1219 1220  
1221 1222 1223 1224 1225 1226 1227 1228 1229 1230  
1231 1232 1233 1234 1235 1236 1237 1238 1239 1240  
1241 1242 1243 1244 1245 1246 1247 1248 1249 1250  
1251 1252 1253 1254 1255 1256 1257 1258 1259 1260  
1261 1262 1263 1264 1265 1266 1267 1268 1269 1270  
1271 1272 1273 1274 1275 1276 1277 1278 1279 1280  
1281 1282 1283 1284 1285 1286 1287 1288 1289 1290  
1291 1292 1293 1294 1295 1296 1297 1298 1299 1300  
1301 1302 1303 1304 1305 1306 1307 1308 1309 1310  
1311 1312 1313 1314 1315 1316 1317 1318 1319 1320  
1321 1322 1323 1324 1325 1326 1327 1328 1329 1330  
1331 1332 1333 1334 1335 1336 1337 1338 1339 1340  
1341 1342 1343 1344 1345 1346 1347 1348 1349 1350  
1351 1352 1353 1354 1355 1356 1357 1358 1359 1360  
1361 1362 1363 1364 1365 1366 1367 1368 1369 1370  
1371 1372 1373 1374 1375 1376 1377 1378 1379 1380  
1381 1382 1383 1384 1385 1386 1387 1388 1389 1390  
1391 1392 1393 1394 1395 1396 1397 1398 1399 1400  
1401 1402 1403 1404 1405 1406 1407 1408 1409 1410  
1411 1412 1413 1414 1415 1416 1417 1418 1419 1420  
1421 1422 1423 1424 1425 1426 1427 1428 1429 1430  
1431 1432 1433 1434 1435 1436 1437 1438 1439 1440  
1441 1442 1443 1444 1445 1446 1447 1448 1449 1450  
1451 1452 1453 1454 1455 1456 1457 1458 1459 1460  
1461 1462 1463 1464 1465 1466 1467 1468 1469 1470  
1471 1472 1473 1474 1475 1476 1477 1478 1479 1480  
1481 1482 1483 1484 1485 1486 1487 1488 1489 1490  
1491 1492 1493 1494 1495 1496 1497 1498 1499 1500  
1501 1502 1503 1504 1505 1506 1507 1508 1509 1510  
1511 1512 1513 1514 1515 1516 1517 1518 1519 1520  
1521 1522 1523 1524 1525 1526 1527 1528 1529 1530  
1531 1532 1533 1534 1535 1536 1537 1538 1539 1540  
1541 1542 1543 1544 1545 1546 1547 1548 1549 1550  
1551 1552 1553 1554 1555 1556 1557 1558 1559 1560  
1561 1562 1563 1564 1565 1566 1567 1568 1569 1570  
1571 1572 1573 1574 1575 1576 1577 1578 1579 1580  
1581 1582 1583 1584 1585 1586 1587 1588 1589 1590  
1591 1592 1593 1594 1595 1596 1597 1598 1599 1600  
1601 1602 1603 1604 1605 1606 1607 1608 1609 1610  
1611 1612 1613 1614 1615 1616 1617 1618 1619 1620  
1621 1622 1623 1624 1625 1626 1627 1628 1629 1630  
1631 1632 1633 1634 1635 1636 1637 1638 1639 1640  
1641 1642 1643 1644 1645 1646 1647 1648 1649 1650  
1651 1652 1653 1654 1655 1656 1657 1658 1659 1660  
1661 1662 1663 1664 1665 1666 1667 1668 1669 1670  
1671 1672 1673 1674 1675 1676 1677 1678 1679 1680  
1681 1682 1683 1684 1685 1686 1687 1688 1689 1690  
1691 1692 1693 1694 1695 1696 1697 1698 1699 1700  
1701 1702 1703 1704 1705 1706 1707 1708 1709 1710  
1711 1712 1713 1714 1715 1716 1717 1718 1719 1720  
1721 1722 1723 1724 1725 1726 1727 1728 1729 1730  
1731 1732 1733 1734 1735 1736 1737 1738 1739 1740  
1741 1742 1743 1744 1745 1746 1747 1748 1749 1750  
1751 1752 1753 1754 1755 1756 1757 1758 1759 1760  
1761 1762 1763 1764 1765 1766 1767 1768 1769 1770  
1771 1772 1773 1774 1775 1776 1777 1778 1779 1780  
1781 1782 1783 1784 1785 1786 1787 1788 1789 1790  
1791 1792 1793 1794 1795 1796 1797 1798 1799 1800  
1801 1802 1803 1804 1805 1806 1807 1808 1809 1810  
1811 1812 1813 1814 1815 1816 1817 1818 1819 1820  
1821 1822 1823 1824 1825 1826 1827 1828 1829 1830  
1831 1832 1833 1834 1835 1836 1837 1838 1839 1840  
1841 1842 1843 1844 1845 1846 1847 1848 1849 1850  
1851 1852 1853 1854 1855 1856 1857 1858 1859 1860  
1861 1862 1863 1864 1865 1866 1867 1868 1869 1870  
1871 1872 1873 1874 1875 1876 1877 1878 1879 1880  
1881 1882 1883 1884 1885 1886 1887 1888 1889 1890  
1891 1892 1893 1894 1895 1896 1897 1898 1899 1900  
1901 1902 1903 1904 1905 1906 1907 1908 1909 1910  
1911 1912 1913 1914 1915 1916 1917 1918 1919 1920  
1921 1922 1923 1924 1925 1926 1927 1928 1929 1930  
1931 1932 1933 1934 1935 1936 1937 1938 1939 1940  
1941 1942 1943 1944 1945 1946 1947 1948 1949 1950  
1951 1952 1953 1954 1955 1956 1957 1958 1959 1960  
1961 1962 1963 1964 1965 1966 1967 1968 1969 1970  
1971 1972 1973 1974 1975 1976 1977 1978 1979 1980  
1981 1982 1983 1984 1985 1986 1987 1988 1989 1990  
1991 1992 1993 1994 1995 1996 1997 1998 1999 2000  
2001 2002 2003 2004 2005 2006 2007 2008 2009 2010  
2011 2012 2013 2014 2015 2016 2017 2018 2019 2020  
2021 2022 2023 2024 2025 2026 2027 2028 2029 2030  
2031 2032 2033 2034 2035 2036 2037 2038 2039 2040  
2041 2042 2043 2044 2045 2046 2047 2048 2049 2050  
2051 2052 2053 2054 2055 2056 2057 2058 2059 2060  
2061 2062 2063 2064 2065 2066 2067 2068 2069 2070  
2071 2072 2073 2074 2075 2076 2077 2078 2079 2080  
2081 2082 2083 2084 2085 2086 2087 2088 2089 2090  
2091 2092 2093 2094 2095 2096 2097 2098 2099 2100  
2101 2102 2103 2104 2105 2106 2107 2108 2109 2110  
2111 2112 2113 2114 2115 2116 2117 2118 2119 2120  
2121 2122 2123 2124 2125 2126 2127 2128 2129 2130  
2131 2132 2133 2134 2135 2136 2137 2138 2139 2140  
2141 2142 2143 2144 2145 2146 2147 2148 2149 2150  
2151 2152 2153 2154 2155 2156 2157 2158 2159 2160  
2161 2162 2163 2164 2165 2166 2167 2168 2169 2170  
2171 2172 2173 2174 2175 2176 2177 2178 2179 2180  
2181 2182 2183 2184 2185 2186 2187 2188 2189 2190  
2191 2192 2193 2194 2195 2196 2197 2198 2199 2200  
2201 2202 2203 2204 2205 2206 2207 2208 2209 2210  
2211 2212 2213 2214 2215 2216 2217 2218 2219 2220  
2221 2222 2223 2224 2225 2226 2227 2228 2229 2230  
2231 2232 2233 2234 2235 2236 2237 2238 2239 2240  
2241 2242 2243 2244 2245 2246 2247 2248 2249 2250  
2251 2252 2253 2254 2255 2256 2257 2258 2259 2260  
2261 2262 2263 2264 2265 2266 2267 2268 2269 2270  
2271 2272 2273 2274 2275 2276 2277 2278 2279 2280  
2281 2282 2283 2284 2285 2286 2287 2288 2289 2290  
2291 2292 2293 2294 2295 2296 2297 2298 2299 2300  
2301 2302 2303 2304 2305 2306 2307 2308 2309 2310  
2311 2312 2313 2314 2315 2316 2317 2318 2319 2320  
2321 2322 2323 2324 2325 2326 2327 2328 2329 2330  
2331 2332 2333 2334 2335 2336 2337 2338 2339 2340  
2341 2342 2343 2344 2345 2346 2347 2348 2349 2350  
2351 2352 2353 2354 2355 2356 2357 2358 2359 2360  
2361 2362 2363 2364 2365 2366 2367 2368 2369 2370  
2371 2372 2373 2374 2375 2376 2377 2378 2379 2380  
2381 2382 2383 2384 2385 2386 2387 2388 2389 2390  
2391 2392 2393 2394 2395 2396 2397 2398 2399 2400  
2401 2402 2403 2404 2405 2406 2407 2408 2409 2410  
2411 2412 2413 2414 2415 2416 2417 2418 2419 2420  
2421 2422 2423 2424 2425 2426 2427 2428 2429 2430  
2431 2432 2433 2434 2435 2436 2437 2438 2439 2440  
2441 2442 2443 2444 2445 2446 2447 2448 2449 2450  
2451 2452 2453 2454 2455 2456 2457 2458 2459 2460  
2461 2462 2463 2464 2465 2466 2467 2468 2469 2470  
2471 2472 2473 2474 2475 2476 2477 2478 2479 2480  
2481 2482  
C_FVGradient_X 1 2483 double
-4.643055939515727 12.431414280626596 -3.090234212147964 -22.365996267823114 -26.33876570216125 0.4857786684167749 -3.718994019389536 1.7577032485547044 -4.916655451390667 0.7590434766803738 -0.0805847392282523  
3.300903994212387 10.499470174194276 3.634313082116285 -4.728149886673536 -0.6745621161947091 -0.03204303005854132 102.34498855048425 -0.5198147907929297 -5.287498106680404 -3.950425629903631  
1.0483322653967782 -3.590614426846377 -9.004063497651495 7.0100055581730984 -3.4438478416218636 4.238982633325402 -7.619309301982546 4.7466565426665195 -0.04286501545215333 -1.615677501046427  
-15.909768190674546 -0.17621294647722588 2.2255593571058023 -5.337510224658562 30.126089507808253 120.41974932646623 19.4531891155047 -4.043797490802599 -13.344668166135579 0.9432816346087138  
2.810291925104304 -1.4598323377591322 68.62795163623925 3.0554482956944926 -6.162400920804281 -10.42879407704341 5.684568932315973 1.5263661319522437 -2.257987882131257 -1.369643978484786  
-5.899618645365636 -1.0172305751594886 0.0605841554265099 39.93189519950692 1.6920757571905565 -2.737008692430506 25.18853573785733 4.725694583324571 -0.4228209291060193 5.086946532805905  
39.356926131368 1.4358548862603062 -7.523398346913663 0.8818949731078812 -15.078937640432947 4.259607531837251 -15.557780676783509 6.291565298130874 -23.95430329444049 -1.1012798212150654  
-1.7304045210537464 -0.7696975043028234 2.4568442666346875 -28.911838981552016 -5.8655529141194345 -7.627992050502154 1.0869814374992601 -22.03169383717945 15.073737241504213 7.26479086032337  
4.195164994838729 -28.411294648425155 -20.363937193344796 -69.90018453624455 14.871519161684237 -33.179847354052654 10.611522531462194 7.435466624988997 3.7653275572724083 2.4471668709406  
-5.779682748657287 22.83491896297127 -14.603720453394901 -7.231957957359859 -28.71507126629153 -43.34499606761622 4.555755357860849 -2.449645667179953 18.162280696700204 -9.89411952183974  
-2.110617803451136 -4.928459994970932 2.5118898987401197 1.0903711703845131 46.00835465531537 -29.180051870418747 -4.532927502519288 5.197641547298983 -14.406542030542768 -1.8913769983359312  
-2.6368730393920883 0.5546918787791371 -3.002755099654432 -3.3871725396931858 -58.06547236585198 -41.7704149034236 1.4155339150441815 56.31895424200626 -5.87635259692536 0.9657048073201673  
16.976232215339092 23.66288520646048 8.473806150155431 -8.594015715430082 0.43829969313976613 -25.8872038735496 2.0385654976362537 -147.41078188249585 46.274663968097705 -5.301698233054712  
-8.931099203300533 -0.3098594651060102 24.09478190459546 -2.902072274527911 27.397028856400258 -27.103918521275045 14.90020965263775 11.04129033238573 -0.6251281827657169 21.07190561648052  
2.1428431226143494 -2.375651374608829 1.847522386674541 1.9827231013140847 18.693128305642862 11.823549374784145 1.8050295976818997 9.972054259795863 -3.698114767717228 24.935100239116828  
5.028721856876933 5.405320921436723 7.128916388091891 12.765287542926648 -2.6810966376359366 18.51991644489477 -2.4895137192980226 -0.747788713366255 3.830594779455265 25.28106557259315  
2.2008757722778713 2.5251506561913275 -1.9470826613627572 -8.40576192087233 2.9053229440478714 -3.9281324083837705 -9.27334504625117 6.9133430209126105 22.822553260713722 -12.406763734528635  
1.537187674174834 -17.103384040178206 24.15462464467663 36.63787524459461 -6.697057524669592 -4.926497772480614 -297.0296105715005 -4.248519356795776 14.827969913996952 -6.256509114063133  
2373.5407113096094 -4.928848011080045 -1.8205910062063313 18.011839936987634 52728.086427856506 -6.858060886973401 0.9014818126041139 -2071.986788463127 10.963758334075465 11.83682399551845  
7.790665033185014 0.12766635330601447 2.346041392309371 -1.4729967984961605 10.81946633814164 -0.34023417473002704 3.3889393379722543 -2.0146216846930507 1.8540828334625874 -3.938043356867192  
-4.9619719781388065 -7.500500252552965 1.2414666065438809 0.5898666560160862 -0.8439763082865196 22.55004551681864 -4.456263856783051 -30.410948991052187 1.2345352111151155 3.046307756573286  
-3.7516789778863644 -3.156419964590155 -4.141537085108827 -378.7643198145419 -3.526835002349316 -2.572876869125503 5.2313476008381 -5.4377235921737235 -0.24412557266491852 -15.891766087772838  
-0.8266504751222834 -5.040389259727058 -11.83607409995374 -6.617177600407016 1.6186223015820065 -1.8673756696469015 -0.24419606289894094 1.8995271921775059 -8.743070169506483 23.2843244190068  
1.0688568313231221 -1.4242402570007686 1.4219822619387232 -5.6686286574447555 -20.01958964400553 -14.082196434697973 -41.86673042790557 -5.53196825576919 -1.0002948945120933 27.103639363836823  
-2.446375228474375 -38.862058520603426 1.4214560460729562 -0.9878113472540068 0.24510721075235806 -7.310736839824465 -10.048824368935339 -2.293636190366584 -0.9479345494050554 -2.917993886769874  
0.6674742928899997 20.03352996986891 -1.4978302912438461 -0.4285370671348187 9.217091946103729 -7.9069802991749345 7.1804824237604805 -5.405636780135841 -6.033677822912269 -6.606283102424448  
-21.14587967353927 -5.402137819198819 -3.095914649200586 21.21256637841701 1.8204905951818706 -2.086999815417832 -3.9716181858062525 -3.7901911223360436 -0.5408724586434457 0.3827847861394733  
-3.187543187074422 -16.323948304884432 6.522488891302995 -3.473834322756008 2.3833832523853085 -7.629569706681384 60.56469108623827 -0.6345053596517657 2.7811423508396285 -1.586401200718226  
19.820260791959626 4.303646914986136 0.3423879754658408 -13.420663414987676 3.251252920413231 -15.936681914975583 -0.39251322286172646 -1.8789985543697822 -1.9663577811882818 4.491485905804774  
23.493979388444895 17.970441844900318 33.66580090349912 19.73099877341399 16.057218309723964 -2.373858945951006 2.565186021647308 -1.0194917445384777 -17.227156769309683 -2.0729948015988144  
11.63900599967773 1.764349284382513 0.7217732705117776 -2.3926102985491355 0.854752949311116 31.669686527867025 -1.7355387541125662 -1.5464303701678113 -2.134271608930895 2.843443291096898  
-0.5457822786704534 -1.6653046293533251 -1.7179408333861013 -48.806390229247214 32.918793334991285 -26.719504996281614 10.092598646155286 11.461054923756219 -1.0234009936970654 0.95556914475285  
-6.363025254823265 3.3010461961432256 1.5286120605130378 -0.08053040139394076 -1.7087406128187619 -21.07856117628731 -1.6881053444568301 0.4361630484874981 -5.89632413201504 11.535965619802665  
-1.4749418110284918 14.724664156223222 31.58599793108922 -4.324931364581101 -7.8922321700767935 -4.996807445437098 -35.175763200109614 -3.7980646041023114 -7.689989562082409 1.9065326041649528  
11.106457357040123 3.0674201021346446 -2.940284242069811 -2.882008406191076 -1.5726839267051733 -3.570682918732187 27.38049991254855 19.21697186751229 -2.655987108236582 -3.6017550545148516  
-20.783899441918077 -21.18661457855554 -6.504492414394658 0.3447556089880456 6.5821155720160265 1.2276979108893846 -1.4569056539673277 3.163749959417226 -14.001420244074486 -0.40998194157427914  
-1.3335688596046549 -41.034663103943515 -16.108199136036184 3.920094219553635 -1.766232916311168 -5.921836274381748 3.0463173171294793 -2.2181913613527815 -1.6967404414477911 1.2168198425788885  
11.82847135031303 -6.874675161755513 1.9120867127183234 -19.660281588182535 -4.145807056832617 8.779653395722995 -3.6337105976930784 5.3705341211951545 -0.15881710898230222 3.8067372342222425  
21.41338935729295 -12.444260986422384 0.2773218780780439 37.486991122215095 1.5542931409493017 -0.30551795791726716 -29.782298046545623 3.990869522027158 2.8429717786214406 -3.0332024009243623  
-0.7041229655770531 -8.17064171644761 -0.680169458785431 -18.76067601234389 41.18486856193382 -37.00412167786846 -7.894170283757694 -2.950277077299967 10.375499228705278 -8.427814255788983  
-4.008539273143259 -0.4167004610013024 -12.99334615020504 0.27249807091443634 2.6547557358962677 4.9441617268207 0.8780482777700801 -5.163841417934477 24.6586014493985 -33.95913529656235  