# vtk DataFile Version 2.0
VTK file generated from Point objects
ASCII
DATASET UNSTRUCTURED_GRID
POINTS 486 float
0.5293832922142168 0.5122942264665004 0.2358313859356504 
0.5520032083834395 0.7744156799440505 0.2330056830032551 
0.7183788952474758 0.653504288627492 0.266997855686596 
0.5969914815802397 0.637758224394837 0.1659182628267163 
0.3749999999990461 0.6250000000003879 1.0 
0.4576901057258213 0.482605237073867 0.761390844341316 
0.3316883879005534 0.6683116120994765 0.6683116120994765 
0.4996689037342363 0.7753239559102588 0.7753239559102588 
0.7745410301107442 0.5525580763835904 0.529352188536318 
0.8222785453813019 0.8222785453812039 0.4139432283648196 
0.5406919379220729 0.7375637478826679 0.4838032311692883 
0.8168964938259603 0.8168964938260004 0.606758504244068 
0.3614577142699188 0.7110360036223299 0.2889639963776592 
0.0 0.7500000000003471 0.6250000000006634 
0.0 0.625000000001214 0.6250000000003878 
0.2328477100506263 0.767152289949357 0.4802613168506315 
0.5624999999992758 0.4561971442795488 0.5438028557202641 
0.229178893392325 0.4844941392351499 0.5590050247268035 
0.3738098788122791 0.6164305405845518 0.4729265779485088 
0.1422518725968205 0.4413889836086834 0.02433281059267395 
0.0 0.5000000000020595 0.1250000000001467 
0.1584408800469858 0.3856666355581483 0.1831934520844217 
0.1519032031396036 0.6466074979839653 0.1745108604067228 
0.7469137311572568 0.6702499358138939 0.3297500641860851 
0.2070955250325219 0.7929044749674365 0.7929044749674367 
0.0 0.625000000001214 0.7499999999999696 
0.2499999999994109 0.6250000000006632 1.0 
0.3749999999990461 0.7499999999999697 1.0 
0.4524243150124302 0.3075766279536992 0.5773830703018386 
0.0 0.8749999999995012 0.6250000000009385 
0.1249999999997732 1.0 0.6250000000009388 
0.2212429867650089 0.5253287159735018 0.2549859735298303 
0.2202508241646514 0.511199527279241 0.7797491758352976 
0.5848938569388463 0.6076419066148104 0.818029853339326 
0.6958700638192103 0.6958700638192648 0.6958700638192648 
0.66093730597113 0.4975650198601588 0.3798775577086222 
0.0 0.3750000000015609 0.8749999999996068 
0.1249999999997732 0.3750000000012464 1.0 
0.1865771786730492 0.1865771786726707 0.8134228213272814 
0.3749999999990461 0.0 0.3749999999990461 
0.3924858082697386 0.1666825718734952 0.1933539665758399 
0.2458030258275436 0.2690364100517039 0.269036410051797 
0.4708317393986383 0.1309022213689702 0.3007051761987157 
0.624999999999011 0.4999999999999547 0.0 
0.6603117265110954 0.3648472308444341 0.1797045803543845 
0.7980330142295499 0.4785441021584598 0.1975225122724054 
0.9810950136110016 0.3124535390102171 0.162448595289083 
1.0 0.3749999999990461 0.249999999999411 
0.815109247124394 0.3016809307295779 0.1793325665975527 
1.0 0.3749999999990461 0.1249999999997731 
0.2499999999994109 1.0 0.6250000000006632 
0.5210451927088695 0.6251728014319297 0.6429899830360385 
0.6249999999990109 1.0 0.3749999999999891 
0.6656820479211372 0.8330312927079725 0.2521912820445015 
0.7081381360776999 0.2595065722836271 0.09291127906627332 
0.6932972853050718 0.1905475786844577 0.2069661742773931 
0.8230061960819227 0.1424504673301175 0.1424504673301305 
0.5882798699786157 0.2321793280860319 0.4715962069060238 
0.5211655102616818 0.2748048831357316 0.2485690592810361 
0.4476124089107882 0.2630763202332984 0.3941465149633608 
0.2499999999994109 0.3750000000009321 1.0 
0.0 0.3750000000015609 0.749999999999718 
0.4103683557850506 0.4201635777107151 0.4201635777111311 
0.3749999999990461 0.3750000000006178 1.0 
0.4805371322680664 0.2162719523646448 0.754956095271088 
0.3054532226124453 0.3054532226121396 0.6945467773878662 
0.5462069050610298 0.7163651527168378 0.08746313528695684 
0.6249999999990109 0.7499999999997179 0.0 
0.6249999999990109 1.0 0.8749999999996068 
0.6249999999990109 0.8749999999996068 1.0 
0.8141313082806205 0.8141313082806102 0.8141313082806102 
0.0 0.3750000000015609 0.6249999999998369 
0.751158954488983 0.3310003705972516 0.3310003705974496 
0.6249999999990109 1.0 0.7499999999997179 
0.6249999999990109 0.7499999999997179 1.0 
0.2499999999994109 0.5000000000012177 0.0 
0.3749999999990461 0.5000000000007967 0.0 
0.3761617854521082 0.3961944767826917 0.1953129958644593 
0.4397398911511558 0.6915561241952461 0.1451736878388437 
0.7549560952734031 0.5194628677292574 0.7837280476364215 
0.5814509407239353 0.3575706544200349 0.8204502727161163 
0.3749999999990461 0.0 0.6249999999990109 
0.3158365153999765 0.220687112501125 0.4818512420398661 
1.0 0.6249999999990109 0.6249999999990111 
0.7160600292325241 0.2839399707676454 0.7160600292324687 
0.624999999999011 1.0 0.4999999999999547 
0.3921701175097532 0.8190466327748664 0.569772868101577 
0.3749999999990461 0.2500000000004294 1.0 
0.499999999998692 0.0 0.6249999999990109 
0.499999999998692 0.0 0.4999999999986921 
0.5914822467325827 0.8249439607504138 0.630724536322814 
1.0 0.6249999999990109 0.7499999999993406 
0.3749999999990461 0.6250000000003879 0.0 
1.0 0.6249999999990109 0.8749999999996703 
0.8749999999996703 0.6249999999992863 1.0 
0.2499999999994109 0.6250000000006632 0.0 
0.3749999999990461 0.0 0.4999999999986922 
0.3749999999990461 0.0 0.8749999999996703 
0.3749999999990461 0.1250000000002401 1.0 
0.8162612075198941 0.3820850566613709 0.5929031568511406 
0.374999999999046 1.0 0.8749999999995646 
0.374999999999046 0.8749999999995646 1.0 
0.1249999999997731 0.5000000000016387 0.0 
0.249999999999411 0.2500000000006332 1.0 
0.7499999999993406 0.0 0.3749999999990461 
0.7924601976372312 0.2075398023625568 0.5311956584385288 
0.8404620562049403 0.1795723699592509 0.3057777961395288 
0.648415136695752 0.1466490455685725 0.3659919172435858 
0.6043208616300535 0.2543357434516611 0.1316729545129374 
0.3749999999990461 1.0 0.7499999999999697 
0.1824803768349585 0.1824803768346391 0.6140599833256776 
0.4999999999986922 0.0 0.8749999999996703 
0.5557969009278539 0.1193321308098938 0.905686690132571 
0.6362081822221359 0.1647689061560444 0.816595690042616 
0.8749999999996703 0.499999999999113 1.0 
0.9056866901333137 0.4442030990697715 0.8806678691900848 
0.8165956900449881 0.363791817775117 0.8352310938435596 
0.0 0.7500000000003471 0.7500000000000955 
0.249999999999411 0.7500000000000954 1.0 
0.3749999999990461 0.0 0.7499999999993406 
0.4575696647843459 0.8326218321159164 0.3656607109630687 
1.0 0.7499999999993406 0.2499999999994109 
1.0 0.7499999999993406 0.3749999999990461 
1.0 0.8749999999996703 0.2499999999994109 
0.9169112298937834 0.8726855259876843 0.3069178347687065 
1.0 0.8749999999996703 0.3749999999990461 
0.499999999998692 0.2500000000002257 1.0 
0.6249999999990109 0.1250000000000533 1.0 
0.4999999999986922 0.1250000000001467 1.0 
1.0 0.499999999998692 0.7499999999993406 
1.0 0.3749999999990461 0.8749999999996703 
1.0 0.4999999999986922 0.8749999999996703 
0.2499999999994109 0.3750000000009321 0.0 
0.1249999999997732 0.3750000000012464 0.0 
0.499999999998692 0.8749999999995857 0.0 
0.374999999999046 0.8749999999995646 0.0 
0.499999999998692 0.749999999999844 0.0 
0.4506314020086352 0.8789158427354216 0.07739090715883072 
0.1816772345776017 0.348714069568876 0.4316639861110393 
1.0 0.7499999999993407 0.7499999999993405 
0.7499999999993407 0.6249999999995617 1.0 
0.7499999999993407 1.0 0.4999999999995339 
0.6066410632053617 0.1700730609459183 0.6467890089445273 
0.0 0.2500000000010405 0.7499999999995921 
0.2499999999994109 0.0 0.7499999999993406 
0.7499999999993405 0.0 0.499999999998692 
0.4999999999986922 0.3750000000003034 0.0 
0.1249999999997732 0.6250000000009388 1.0 
0.0 0.625000000001214 0.8749999999995645 
1.0 0.499999999998692 0.6249999999990109 
1.0 0.6249999999990109 0.499999999998692 
0.8151654166635607 0.8151654166636544 0.1925479762741732 
0.5624999999988515 0.1323263136364248 0.04236487176363546 
0.4554488461937886 0.08027216323215222 0.08464622313822959 
0.5575823618672155 0.1473616406508471 0.1951304745302131 
0.3749999999990461 0.5000000000007967 1.0 
1.0 0.7499999999993406 0.6249999999990109 
1.0 0.1249999999997731 0.6249999999990109 
0.8749999999996703 0.0 0.6249999999990109 
0.823789786591109 0.1759786656192376 0.826262677183184 
0.7499999999993405 0.7499999999995921 1.0 
0.0 0.625000000001214 0.5000000000007966 
0.1787691157181232 0.5989799947968911 0.4208426843321533 
0.7499999999993406 0.2499999999998184 0.0 
0.5624999999989697 0.8671379458693075 0.09736179091640747 
0.0 0.2500000000010405 0.1249999999999599 
0.1249999999997731 0.2500000000008368 0.0 
0.2499999999994109 1.0 0.3750000000009321 
0.2170611476796024 0.775243323490644 0.2466222953589846 
0.499999999998692 0.0 0.1249999999997732 
0.499999999998692 0.6250000000001124 1.0 
1.0 0.249999999999411 0.6249999999990109 
0.9144382595692269 0.5567954837265058 0.1365255985472481 
1.0 0.4999999999986922 0.2499999999994109 
0.8345163655621628 0.6308144730696641 0.1565890140072487 
0.7499999999993406 0.0 0.6249999999990109 
0.249999999999411 0.0 0.3749999999990461 
0.1700947961398431 0.1700947961395235 0.3948951305540707 
0.249999999999411 0.7500000000000954 0.0 
0.7499999999993407 0.4999999999995339 0.0 
0.7499999999993405 0.7499999999995921 0.0 
1.0 0.4999999999986922 0.1249999999997731 
1.0 0.4999999999986921 0.0 
0.9252393192843764 0.4435965536258314 0.07410051349044824 
0.8749999999996703 1.0 0.0 
0.8749999999996703 1.0 0.1249999999998666 
0.7499999999993406 1.0 0.1249999999999599 
0.8128823206129253 0.9288328484283351 0.07227354111252983 
1.0 0.3749999999990461 0.0 
0.7499999999993406 1.0 0.0 
0.7499999999993406 0.0 0.0 
0.7499999999993406 0.0 0.1249999999997731 
0.8749999999996703 0.0 0.1249999999997732 
0.8004620247024915 0.06439359197656347 0.06214681780751923 
0.8749999999996703 0.0 0.0 
0.3749999999990461 0.0 0.0 
0.4999999999986921 0.0 0.0 
0.3749999999990461 0.1250000000002401 0.0 
0.4999999999986922 0.1250000000001467 0.0 
0.0 0.5000000000020595 0.0 
0.0 0.625000000001214 0.0 
0.0 0.625000000001214 0.1250000000002401 
0.06403122672948333 0.5733895733875151 0.06695828732232766 
0.249999999999411 1.0 0.7500000000000954 
[...]
CELL_DATA 1640
FIELD FieldData 7 
eid 1 1640 double
0 1 2 3 4 5 6 7 8 9 10  
11 12 13 14 15 16 17 18 19 20  
21 22 23 24 25 26 27 28 29 30  
31 32 33 34 35 36 37 38 39 40  
41 42 43 44 45 46 47 48 49 50  
51 52 53 54 55 56 57 58 59 60  
61 62 63 64 65 66 67 68 69 70  
71 72 73 74 75 76 77 78 79 80  
81 82 83 84 85 86 87 88 89 90  
91 92 93 94 95 96 97 98 99 100  
101 102 103 104 105 106 107 108 109 110  
111 112 113 114 115 116 117 118 119 120  
121 122 123 124 125 126 127 128 129 130  
131 132 133 134 135 136 137 138 139 140  
141 142 143 144 145 146 147 148 149 150  
151 152 153 154 155 156 157 158 159 160  
161 162 163 164 165 166 167 168 169 170  
171 172 173 174 175 176 177 178 179 180  
181 182 183 184 185 186 187 188 189 190  
191 192 193 194 195 196 197 198 199 200  
201 202 203 204 205 206 207 208 209 210  
211 212 213 214 215 216 217 218 219 220  
221 222 223 224 225 226 227 228 229 230  
231 232 233 234 235 236 237 238 239 240  
241 242 243 244 245 246 247 248 249 250  
251 252 253 254 255 256 257 258 259 260  
261 262 263 264 265 266 267 268 269 270  
271 272 273 274 275 276 277 278 279 280  
281 282 283 284 285 286 287 288 289 290  
291 292 293 294 295 296 297 298 299 300  
301 302 303 304 305 306 307 308 309 310  
311 312 313 314 315 316 317 318 319 320  
321 322 323 324 325 326 327 328 329 330  
331 332 333 334 335 336 337 338 339 340  
341 342 343 344 345 346 347 348 349 350  
351 352 353 354 355 356 357 358 359 360  
361 362 363 364 365 366 367 368 369 370  
371 372 373 374 375 376 377 378 379 380  
381 382 383 384 385 386 387 388 389 390  
391 392 393 394 395 396 397 398 399 400  
401 402 403 404 405 406 407 408 409 410  
411 412 413 414 415 416 417 418 419 420  
421 422 423 424 425 426 427 428 429 430  
431 432 433 434 435 436 437 438 439 440  
441 442 443 444 445 446 447 448 449 450  
451 452 453 454 455 456 457 458 459 460  
461 462 463 464 465 466 467 468 469 470  
471 472 473 474 475 476 477 478 479 480  
481 482 483 484 485 486 487 488 489 490  
491 492 493 494 495 496 497 498 499 500  
501 502 503 504 505 506 507 508 509 510  
511 512 513 514 515 516 517 518 519 520  
521 522 523 524 525 526 527 528 529 530  
531 532 533 534 535 536 537 538 539 540  
541 542 543 544 545 546 547 548 549 550  
551 552 553 554 555 556 557 558 559 560  
561 562 563 564 565 566 567 568 569 570  
571 572 573 574 575 576 577 578 579 580  
581 582 583 584 585 586 587 588 589 590  
591 592 593 594 595 596 597 598 599 600  
601 602 603 604 605 606 607 608 609 610  
611 612 613 614 615 616 617 618 619 620  
621 622 623 624 625 626 627 628 629 630  
631 632 633 634 635 636 637 638 639 640  
641 642 643 644 645 646 647 648 649 650  
651 652 653 654 655 656 657 658 659 660  
661 662 663 664 665 666 667 668 669 670  
671 672 673 674 675 676 677 678 679 680  
681 682 683 684 685 686 687 688 689 690  
691 692 693 694 695 696 697 698 699 700  
701 702 703 704 705 706 707 708 709 710  
711 712 713 714 715 716 717 718 719 720  
721 722 723 724 725 726 727 728 729 730  
731 732 733 734 735 736 737 738 739 740  
741 742 743 744 745 746 747 748 749 750  
751 752 753 754 755 756 757 758 759 760  
761 762 763 764 765 766 767 768 769 770  
771 772 773 774 775 776 777 778 779 780  
781 782 783 784 785 786 787 788 789 790  
791 792 793 794 795 796 797 798 799 800  
801 802 803 804 805 806 807 808 809 810  
811 812 813 814 815 816 817 818 819 820  
821 822 823 824 825 826 827 828 829 830  
831 832 833 834 835 836 837 838 839 840  
841 842 843 844 845 846 847 848 849 850  
851 852 853 854 855 856 857 858 859 860  
861 862 863 864 865 866 867 868 869 870  
871 872 873 874 875 876 877 878 879 880  
881 882 883 884 885 886 887 888 889 890  
891 892 893 894 895 896 897 898 899 900  
901 902 903 904 905 906 907 908 909 910  
911 912 913 914 915 916 917 918 919 920  
921 922 923 924 925 926 927 928 929 930  
931 932 933 934 935 936 937 938 939 940  
941 942 943 944 945 946 947 948 949 950  
951 952 953 954 955 956 957 958 959 960  
961 962 963 964 965 966 967 968 969 970  
971 972 973 974 975 976 977 978 979 980  
981 982 983 984 985 986 987 988 989 990  
991 992 993 994 995 996 997 998 999 1000  
1001 1002 1003 1004 1005 1006 1007 1008 1009 1010  
1011 1012 1013 1014 1015 1016 1017 1018 1019 1020  
1021 1022 1023 1024 1025 1026 1027 1028 1029 1030  
1031 1032 1033 1034 1035 1036 1037 1038 1039 1040  
1041 1042 1043 1044 1045 1046 1047 1048 1049 1050  
1051 1052 1053 1054 1055 1056 1057 1058 1059 1060  
1061 1062 1063 1064 1065 1066 1067 1068 1069 1070  
1071 1072 1073 1074 1075 1076 1077 1078 1079 1080  
1081 1082 1083 1084 1085 1086 1087 1088 1089 1090  
1091 1092 1093 1094 1095 1096 1097 1098 1099 1100  
1101 1102 1103 1104 1105 1106 1107 1108 1109 1110  
1111 1112 1113 1114 1115 1116 1117 1118 1119 1120  
1121 1122 1123 1124 1125 1126 1127 1128 1129 1130  
1131 1132 1133 1134 1135 1136 1137 1138 1139 1140  
1141 1142 1143 1144 1145 1146 1147 1148 1149 1150  
1151 1152 1153 1154 1155 1156 1157 1158 1159 1160  
1161 1162 1163 1164 1165 1166 1167 1168 1169 1170  
1171 1172 1173 1174 1175 1176 1177 1178 1179 1180  
1181 1182 1183 1184 1185 1186 1187 1188 1189 1190  
1191 1192 1193 1194 1195 1196 1197 1198 1199 1200  
1201 1202 1203 1204 1205 1206 1207 1208 1209 1210  
1211 1212 1213 1214 1215 1216 1217 1218 1219 1220  
1221 1222 1223 1224 1225 1226 1227 1228 1229 1230  
1231 1232 1233 1234 1235 1236 1237 1238 1239 1240  
1241 1242 1243 1244 1245 1246 1247 1248 1249 1250  
1251 1252 1253 1254 1255 1256 1257 1258 1259 1260  
1261 1262 1263 1264 1265 1266 1267 1268 1269 1270  
1271 1272 1273 1274 1275 1276 1277 1278 1279 1280  
1281 1282 1283 1284 1285 1286 1287 1288 1289 1290  
1291 1292 1293 1294 1295 1296 1297 1298 1299 1300  
1301 1302 1303 1304 1305 1306 1307 1308 1309 1310  
1311 1312 1313 1314 1315 1316 1317 1318 1319 1320  
1321 1322 1323 1324 1325 1326 1327 1328 1329 1330  
1331 1332 1333 1334 1335 1336 1337 1338 1339 1340  
1341 1342 1343 1344 1345 1346 1347 1348 1349 1350  
1351 1352 1353 1354 1355 1356 1357 1358 1359 1360  
1361 1362 1363 1364 1365 1366 1367 1368 1369 1370  
1371 1372 1373 1374 1375 1376 1377 1378 1379 1380  
1381 1382 1383 1384 1385 1386 1387 1388 1389 1390  
1391 1392 1393 1394 1395 1396 1397 1398 1399 1400  
1401 1402 1403 1404 1405 1406 1407 1408 1409 1410  
1411 1412 1413 1414 1415 1416 1417 1418 1419 1420  
1421 1422 1423 1424 1425 1426 1427 1428 1429 1430  
1431 1432 1433 1434 1435 1436 1437 1438 1439 1440  
1441 1442 1443 1444 1445 1446 1447 1448 1449 1450  
1451 1452 1453 1454 1455 1456 1457 1458 1459 1460  
1461 1462 1463 1464 1465 1466 1467 1468 1469 1470  
1471 1472 1473 1474 1475 1476 1477 1478 1479 1480  
1481 1482 1483 1484 1485 1486 1487 1488 1489 1490  
1491 1492 1493 1494 1495 1496 1497 1498 1499 1500  
1501 1502 1503 1504 1505 1506 1507 1508 1509 1510  
1511 1512 1513 1514 1515 1516 1517 1518 1519 1520  
1521 1522 1523 1524 1525 1526 1527 1528 1529 1530  
1531 1532 1533 1534 1535 1536 1537 1538 1539 1540  
1541 1542 1543 1544 1545 1546 1547 1548 1549 1550  
1551 1552 1553 1554 1555 1556 1557 1558 1559 1560  
1561 1562 1563 1564 1565 1566 1567 1568 1569 1570  
1571 1572 1573 1574 1575 1576 1577 1578 1579 1580  
1581 1582 1583 1584 1585 1586 1587 1588 1589 1590  
1591 1592 1593 1594 1595 1596 1597 1598 1599 1600  
1601 1602 1603 1604 1605 1606 1607 1608 1609 1610  
1611 1612 1613 1614 1615 1616 1617 1618 1619 1620  
1621 1622 1623 1624 1625 1626 1627 1628 1629 1630  
1631 1632 1633 1634 1635 1636 1637 1638 1639  
C_FVGradient_X 1 1640 double
-0.6801481367354376 -0.6534777914087377 -0.6834245089086687 -0.5296130003596151 -1.7084460712810425 -0.7945445470618112 -0.3358971653974636 -0.8495604784664552 -2.1680556750414297 -2.178160358708756 -1.3280820679187304  
-0.6359396716455594 -0.6707599910295312 -0.5380249700520173 -1.6358743316584696 -0.5025544360211062 -1.6968126983671072 -1.0451398630689241 -0.7916723390081863 -0.3538219217306764 -1.4260431462205394  
-0.5293310506519071 -0.5132775144282989 -0.9360822413108201 -1.426038038586415 -1.4103353525688034 -0.12461122337074336 -0.5114206713731723 -0.7705707285558312 -1.8776880794662167 -0.39969481229075043  
-4.75315733318471 -1.592908842799058 -2.2776245729622313 -1.2834805818126085 -0.696542282780102 -0.3020231865036207 -1.1672666953800206 -0.7278230134948322 -1.5236490821095396 -1.9897258637885318  
-0.6301959302240701 -0.7569618707509188 -0.638868530283951 -0.6885727539688002 -0.04003038831085395 -0.7361479340835271 -0.803858090877658 -1.2858810373949614 -0.4184251678490081 -0.6075666920569284  
-1.166566907210826 -0.721355995823044 -1.5782499761698972 -1.030598825826151 -0.8372000400481866 -0.03603980511341731 -0.045600779650280546 -0.37790886755062403 -0.6208810639657106 -0.12326891301810278  
-0.68281930836205 -0.6252477270299136 -0.2968936894020652 -0.6121709011607174 -0.6836007896332531 -0.25295567186793055 -0.6519138735653441 -0.6020841798558775 -1.222869915078507 -0.5173434414487746  
-0.8114325158193436 -0.42593972192436064 -0.3608263776634829 -0.19603005707805307 -0.530942023642515 -0.37404611645019115 -0.5803806796483009 -0.20589494185085605 -0.23171158333890918 -0.2489433161463711  
-0.10061325058864853 0.09203666266784563 -0.4022946663651664 -0.07738208336092205 -0.18719611142094678 -0.6353399598298931 -0.38234398352218235 -0.27511416844731096 -0.7640374336284489 -0.197402467076611  
-0.2823090510346107 -0.3489915821412643 -0.7397063727694123 -0.49899147710999575 -1.1847625665471728 -0.26991596722151545 -2.5836465867741207 -0.8083570921484743 -0.5553075534882506 -0.6776429662588037  
-0.5952943094014509 -0.14833906654205734 -0.7566530466086638 -0.6404529496251371 -0.3695081649864178 -0.19673124239254816 0.5307200025426374 -0.39171783305761965 -0.586833566186113 -0.483282357945356  
-0.22383070677461928 -0.7491519817482964 -0.9474995738976987 -2.7351390740041204 -2.7390214245908253 -1.1615455742660616 -0.9127765574166667 -1.1807683289286541 -0.37054686731394837 -0.5006712279295226  
-0.31303214597426426 -0.39480371807641895 -1.7837173665970618 -1.4423331384346827 -0.3986963268124974 -0.7702412251543049 -0.5466415070406927 0.22498682517096102 0.13802686415151982 -1.3504000481624623  
-0.2572410632070147 -0.2918524280245479 -0.38813498183521833 -0.5053423593834495 -0.5561401394762078 -0.6824234852622193 -0.3257053421041951 -0.40351482332198696 0.1884898901578237 -0.699978041333498  
-0.18397784692548527 -0.2262639358605114 -0.4164380619199312 -0.459335561967602 -0.0016236299546510524 -0.09124673310246229 -1.2506063582778257 -0.8796697956950741 -0.5676768458948822 -1.3261184927396312  
-0.08813634751922024 -0.5495822585840077 0.12983641142443275 -0.34313540684412663 -0.7667840625476801 -0.44303463245716584 -0.7539681461189619 -0.283686004648746 -1.7307591126854 -0.4717786850613979  
-0.7355993660242034 -0.4400488482811586 -0.7715120662804342 -0.674000333949077 -0.23380514271437589 -1.2928941657134707 -1.4938644280169444 -1.260685736983505 -0.12884135230087196 -0.32481798840835635  
-0.37007201409013535 -0.32257641630364436 -0.8458006408703759 -0.22012410636971966 -0.4737588539226952 -0.748887841115112 -1.2448506436870972 -0.8135620295123867 -0.6918560546657533 -0.2777751654531244  
-0.7689526211636006 -0.5750000318373121 -0.16162124255437363 -0.5572354543631902 -0.3321728046681657 -0.5147292716021945 -0.6832832582008614 -0.7816831020195081 -0.7084228839296492 -0.5271691963960958  
-1.5387293747614774 -0.3063507323821005 -0.1184224838793394 -1.4327946757251173 -1.491892408412056 0.019219584948217502 -0.7594289030994429 -0.2107942189897799 -1.481166091030865 -0.21257263936289134  
-1.784222497745577 -2.3734776944689786 -0.8104409383679321 -0.12350723318721073 -0.70780072526128 -0.8682395152892307 -0.6089027178773533 -2.1764990496927963 -2.356845613001167 -1.4420358716416481  
-0.28039748438539785 -1.0820640774879593 -0.5850864776531038 -0.3535341011091141 -0.39669992705255136 -0.7459626732720006 0.08821449955256776 -1.342808476558175 -0.4889708634602353 -0.8698256725014243  
-7.654097151663542 -1.0145764111155944 -14.709323150019456 1.8434453132108246 -0.5898507576884237 -1.1772367140947566 0.013004802555068178 -0.020091434592721825 -0.33578286014122044 -0.44880733912614923  
-1.2467580448790236 -0.30345930044648634 -0.24943300908346305 -0.8223267500493432 -1.084968605571548 -0.6068238797480013 -0.48171902612778555 -0.7356795740976207 -1.995029494457185 -1.7949674595704381  
-0.11585312088573606 0.09098921393785428 -0.5230609684562112 -0.22420598956963825 -1.3150941961573397 -0.5936220453833998 -0.5456951370003356 -0.6267464500433272 -0.3265293145463457 -0.8705188976438866  
-0.4501944386869734 -1.115079431637614 -1.585085399045922 -0.9320261790102995 0.5942733510558693 -0.35407705198095035 -0.07144476664566968 -0.35843069576492453 -0.3082913166924851 -0.6293658867494047  
0.13309975955928738 -0.4799950598371951 -0.9119832464288871 -0.6915567180075222 -1.047480973401343 -0.3048186797091086 -0.9793640172215056 -0.5941422396921385 -0.6350883560153385 -1.1498007589133743  
-1.0663092536684438 -0.7285463669292043 -0.26515953771708983 -1.4592940528783716 -0.6102901624457205 -0.2111133584974163 -0.46729308673057957 -0.859019118383486 -1.0136783485862373 -0.8595859949204616  
-1.5209637846294142 -0.8772415721827193 -2.7585989684838625 -2.2058226882080967 -0.44216777518326505 0.03494802596166895 0.8048189030065782 -0.14059902689376214 -0.1612000415033818 -0.4575506006761237  
-1.2724403122279824 -0.6467130515519582 -0.1953281565565445 -1.7109975310591155 0.03582616147823949 -0.7934545880631876 -2.6624807996962683 -1.070403880412737 -0.5249315920210803 -0.5884471088231978  
-0.6491483356656828 -0.8387198845502776 -0.7843488630375381 0.020721512051261395 -0.7276808663349823 -0.6152188555753566 -0.6579990351910561 -0.4548422341705072 -0.9482375360214382 -0.21534403865754928  
2.2702069865113668 -0.3555273026196523 -0.5717550755830995 -0.5305092302108442 -0.44207861969066253 -0.2539494673683107 -0.6470998911609044 -0.36913113489672156 -0.9313390709935142 -0.6589064534404493  
-0.5434223509355379 -1.0859075541693186 -0.13643029968505263 -3.4423871080344295 -1.0118259618444692 -0.29352966777382267 -0.7509717322708299 -1.090359090829389 -2.1327974539738803 -1.9953112629945595  
-1.3695023071658612 -0.8982704870494483 -0.761206139842994 -0.9862787271932801 -0.8555137342976444 -0.17261721784274803 -0.48285860659914587 -2.150469008370748 -1.1875102450235824 -0.2224567006051081  
-1.2081851287238825 -0.5044547382978606 0.016654889683475664 -0.8547756797379649 -1.4123907450958306 -0.3277181767774467 -1.2929319026652712 -2.847512745222374 -0.33682791595089534 -0.45040208896578854  
-2.1924473020211974 -0.8053619723407897 -0.5573572767288762 -0.03853942739976623 -0.058963600440862934 -1.3429076775312223 -0.1554398500713585 -0.9738169048630424 -0.514740770043009 -0.42622085659813325  
-0.9304870026591904 -1.2118131944901225 -0.6251147564661446 -0.975281489803348 -0.04202704206304587 -0.9390165711193664 -0.7975192631148356 -0.07180626706245677 -0.9685171148522178 -0.9520927583077972  
-1.7121758406913206 -2.348299662999264 -0.8678792120179183 -0.33620440936562285 -1.22473838576616 0.017080669259549184 0.03340093813617824 -1.3224377289957758 -0.1533894168894337 -3.0286495246664007  
-4.11858557082645 -0.20793099706670531 -1.4167739270184212 -1.32481816000885 -4.706151184528789 -0.4696905837624444 -0.11579834058216752 -0.8745811065597662 -1.2269079255508908 -0.3932224007376372  
-0.8668092961907854 -1.403992050758311 -1.358311563886647 -1.2146067991422123 -0.6708062110351899 -0.5463672347545457 -4.340001928809636 -0.6636201258095892 -0.4924762906672871 -0.3301356727917817  
-0.07151554148538118 -0.7349798099088748 -0.8247424738514499 -0.6477696823616652 -0.20878527537446867 -2.035054541665344 -0.8810907040519397 -0.17049733401992342 -1.4032289909070814 -0.10664267803624296  
-1.1505290560453212 -0.4804472894879913 -0.06639217157434624 -3.622102592338355 -0.27387327594711547 -0.7353549366943574 0.016365708631422563 -0.42141559628042585 -0.26401720519245453 -0.9983261290932821  
-1.5994425709143367 0.8967356674440696 -0.5699142501839684 -0.5796058447544362 -0.9972651944494293 -1.2663722114674671 -3.5890908750973893 -1.2857555580030886 -4.398086771543449 -0.9625098585323444  
-0.8085278908256984 -2.5128845678104006 -2.375779953425155 -0.29110116100780437 -0.7827899050801628 -1.516264584073129 -0.632721810842517 -0.17162313888671296 -0.9082196412273881 -0.08200968803633205  
-0.2006337449395146 -0.28831788889756477 -1.938105057449787 -1.6149100214037644 -0.9427232896098219 -0.12679708056187092 -0.4321983835731259 -0.5445421115579983 -2.9482626183234326 -1.1404072217330439  
-1.869811820974462 -2.388357963327616 -2.681725529727615 -0.997884587086117 -0.5796830539865432 -0.14316115838857318 -0.0724576698875334 -0.10123118435761068 -0.19085327380958547 -0.11378670598658035  
-2.8668059740539378 -1.1874548222412271 0.5219231364485317 -1.103275658935345 -0.2895392384798852 -1.1146564056335897 -1.1704914666768447 -0.10832069949228071 -0.13619059030748606 -1.3266275172964106  
-2.9839314156273478 -1.2941898364002091 -1.0148239424324101 -1.2548096948870908 -0.17966616591417653 -0.4440363319329349 -1.29379021686367 -0.9952266007103944 0.24420842425832068 -0.47308943107551527  
-0.16235507015825207 -0.1748900240074547 -0.14888149431746467 -0.20268778363934623 -0.8112257622866831 -0.1604151677535997 -0.5219228234770221 -1.4803857083989695 -0.17321503531728727 -0.5526831895901082  
-0.2917312018448445 -0.3835810917356137 -0.015093685795728362 -0.29858729482809915 -0.16741754780897555 -0.05203253027500664 -0.13815748626413246 -0.11702590694834185 -0.32227911137111886 -0.2176430047174883  
-0.7497361305301187 -1.2651948127660844 -2.9995571948180144 -1.4072770675872748 -0.4853906002342339 -0.38034573430642915 0.03569973463994725 -0.8093992985708612 -1.5279003514805198 -0.36144254327931363  
-0.5409015730960388 -0.0857579303467336 -0.09718388352862123 -0.07042117339220345 -0.0575713350920009 -0.14519354238282567 -0.2018049205775723 -3.4487369325914194 -4.158283037685376 -1.225823021232064  
-0.4648574501695221 -0.17278546475949064 -0.29276251906266965 -1.0106222737715833 -0.018284122553728854 -1.3924240753821746 -0.22026339964709002 -1.3794389486835612 0.3034349298125559 -0.1784277948859035  
-1.3562111139667685 -1.076298687147063 -2.751535668096792 -0.9545175875425368 -0.20769800075181194 -0.3784961609339427 -0.8111766293080248 -0.39774155083218793 -1.2258684854079913 -0.32722897167812304  
-0.5611607161028832 -0.20303256993917707 -0.21270557194128104 -0.125666569476495 -0.10141977650664442 -0.5927378021944437 -0.265088704987093 -0.2369903212852941 -0.6034016988113325 -0.47973590262594423  
-0.8600154771671681 -0.862354314559055 -0.41827418643234404 -0.4171990978210902 -0.09061215175443425 -0.07362464936139754 -1.7886648192565098 -0.32561567286319065 -0.9227561067158496 -2.385370765132023  
-0.343031928743826 -0.8206935726812105 -1.1447262991020841 -0.1525120034373637 -1.432986035503848 -1.0326064284048617 -4.371298480545313 -1.483837726751102 -1.2756466548763 -4.377253241444624  
-4.454945934719187 -0.816834336608509 -0.8598427974277217 -4.424185025534539 -0.45589553578739445 -0.47149061490847405 -0.8506666299271751 -1.8033352397638707 -1.9636817626950807 -1.4918349974404383  
-0.11412740935070878 -0.5507565067779432 -0.8407770686432485 -0.14738390555669753 -0.2475116405812375 0.023393150915652493 -0.7203420395159771 -0.6191985163577857 -0.4186357061870654 -0.5857523260833293  
-1.0143073526813613 -1.056697057872481 -0.4933938741090456 -0.4438725016590105 -0.09407455650774031 -1.1956373621068774 0.014894771512542766 -0.9377132766682901 -0.030027584673083012 -0.3968294488856244  
-1.5874417405270471 -2.2358867921772503 -0.2846254406729176 -0.3430281663352754 -2.15838966608247 -0.6210383836315528 -2.8542298566690008 -1.179412696400607 0.1418832565898722 -0.17396454809729617  